Title Card Required                                                     
FOpt      RB3LYP                                                      LANL2DZ             
Number of atoms                            I                5
Info1-9                                    I   N=           9
          20          19           0           0           0         110
           2          18        -502
Full Title                                 C   N=           2
Title Card Required     
Route                                      C   N=           4
# opt b3lyp/lanl2dz geom=connectivity           
Charge                                     I                0
Multiplicity                               I                1
Number of electrons                        I               40
Number of alpha electrons                  I               20
Number of beta electrons                   I               20
Number of basis functions                  I               44
Number of independent functions            I               44
Number of point charges in /Mol/           I                0
Number of translation vectors              I                0
Atomic numbers                             I   N=           5
           6          53           9           9           9
Nuclear charges                            R   N=           5
  6.00000000E+00  7.00000000E+00  9.00000000E+00  9.00000000E+00  9.00000000E+00
Current cartesian coordinates              R   N=          15
 -2.22609392E+00 -2.02337498E-04  5.06459552E-05  1.87834323E+00 -9.47531309E-05
  4.03780639E-05 -3.19165999E+00  2.43798529E+00  2.29635885E-01 -3.19245978E+00
 -1.01968507E+00 -2.22598079E+00 -3.19317220E+00 -1.41760734E+00  1.99607336E+00
Number of symbols in /Mol/                 I                0
Int Atom Types                             I   N=           5
           0           0           0           0           0
Force Field                                I                0
Atom Types                                 C   N=           5
                                                            
MM charges                                 R   N=           5
  0.00000000E+00  0.00000000E+00  0.00000000E+00  0.00000000E+00  0.00000000E+00
Integer atomic weights                     I   N=           5
          12         127          19          19          19
Real atomic weights                        R   N=           5
  1.20000000E+01  1.26900400E+02  1.89984032E+01  1.89984032E+01  1.89984032E+01
Atom fragment info                         I   N=           5
           0           0           0           0           0
Atom residue num                           I   N=           5
           0           0           0           0           0
Nuclear spins                              I   N=           5
           0           5           1           1           1
Nuclear ZEff                               R   N=           5
 -3.60000000E+00 -5.83000000E+03 -6.75000000E+00 -6.75000000E+00 -6.75000000E+00
Nuclear ZNuc                               R   N=           5
  6.00000000E+00  5.30000000E+01  9.00000000E+00  9.00000000E+00  9.00000000E+00
Nuclear QMom                               R   N=           5
  0.00000000E+00 -7.10000000E+01  0.00000000E+00  0.00000000E+00  0.00000000E+00
Nuclear GFac                               R   N=           5
  0.00000000E+00  2.81328000E+00  2.62886700E+00  2.62886700E+00  2.62886700E+00
MicOpt                                     I   N=           5
          -1          -1          -1          -1          -1
Number of residues                         I                0
Number of secondary structures             I                0
Redundant internal dimensions              I   N=           4
          14           4           6           4
Redundant internal coordinate indices      I   N=          56
           1           2           0           0           1           3
           0           0           1           4           0           0
           1           5           0           0           2           1
           3           0           2           1           4           0
           2           1           5           0           3           1
           4           0           3           1           5           0
           4           1           5           0           2           1
           4           3           2           1           5           3
           2           1           5           4           3           1
           5           4
Redundant internal coordinates             R   N=          14
  4.10443715E+00  2.63244870E+00  2.63218996E+00  2.63218237E+00  1.94633081E+00
  1.94673071E+00  1.94703142E+00  1.87321028E+00  1.87324141E+00  1.87323790E+00
 -2.13671556E+00  2.13692290E+00 -2.13741708E+00  2.00884533E+00
ZRed-IntVec                                I   N=          14
           0           0           0           0           0           0
           0           0           0           0           0           0
           0           0
ZRed-FPVec                                 R   N=          14
  0.00000000E+00  0.00000000E+00  0.00000000E+00  0.00000000E+00  0.00000000E+00
  0.00000000E+00  0.00000000E+00  0.00000000E+00  0.00000000E+00  0.00000000E+00
  0.00000000E+00  0.00000000E+00  0.00000000E+00  0.00000000E+00
ZRed-Constraint1                           R   N=          14
  4.02660953E+00  2.55113027E+00  2.55113026E+00  2.55113027E+00  1.87689017E+00
  1.87645448E+00  1.87709721E+00  1.94327675E+00  1.94321974E+00  1.94311926E+00
 -2.05164928E+00  2.05200657E+00 -2.05142259E+00  2.17975615E+00
ZRed-Constraint2                           R   N=          14
  0.00000000E+00  0.00000000E+00  0.00000000E+00  0.00000000E+00  0.00000000E+00
  0.00000000E+00  0.00000000E+00  0.00000000E+00  0.00000000E+00  0.00000000E+00
  0.00000000E+00  0.00000000E+00  0.00000000E+00  0.00000000E+00
SymInf integers                            I   N=          26
           1           1           1           1           1           0
           0           0           0           0           0           0
           0           0           0           0           0           0
           0           0           0           0           0           0
           0           0
RotTr to input orientation                 R   N=          12
 -9.99999970E-01  2.43177585E-04  1.35373149E-05  2.41465201E-04  9.82626565E-01
  1.85593574E-01  3.18300718E-05  1.85593572E-01 -9.82626595E-01  1.08305177E+00
  3.43990156E-04  1.10794472E-04
Number of contracted shells                I               24
Number of primitive shells                 I               66
Pure/Cartesian d shells                    I                0
Pure/Cartesian f shells                    I                0
Highest angular momentum                   I                1
Largest degree of contraction              I                7
Shell types                                I   N=          24
           0           0           0           1           1           0
           0           1           1           0           0           0
           1           1           0           0           0           1
           1           0           0           0           1           1
Number of primitives per shell             I   N=          24
           7           2           1           4           1           2
           1           2           1           7           2           1
           4           1           7           2           1           4
           1           7           2           1           4           1
Shell to atom map                          I   N=          24
           1           1           1           1           1           2
           2           2           2           3           3           3
           3           3           4           4           4           4
           4           5           5           5           5           5
Primitive exponents                        R   N=          66
  4.23300000E+03  6.34900000E+02  1.46100000E+02  4.25000000E+01  1.41900000E+01
  5.14800000E+00  1.96700000E+00  5.14800000E+00  4.96200000E-01  1.53300000E-01
  1.81600000E+01  3.98600000E+00  1.14300000E+00  3.59400000E-01  1.14600000E-01
  7.24200000E-01  4.65300000E-01  1.33600000E-01  1.29000000E+00  3.18000000E-01
  1.05300000E-01  9.99500000E+03  1.50600000E+03  3.50300000E+02  1.04100000E+02
  3.48400000E+01  1.22200000E+01  4.36900000E+00  1.22200000E+01  1.20800000E+00
  3.63400000E-01  4.43600000E+01  1.00800000E+01  2.99600000E+00  9.38300000E-01
  2.73300000E-01  9.99500000E+03  1.50600000E+03  3.50300000E+02  1.04100000E+02
  3.48400000E+01  1.22200000E+01  4.36900000E+00  1.22200000E+01  1.20800000E+00
  3.63400000E-01  4.43600000E+01  1.00800000E+01  2.99600000E+00  9.38300000E-01
  2.73300000E-01  9.99500000E+03  1.50600000E+03  3.50300000E+02  1.04100000E+02
  3.48400000E+01  1.22200000E+01  4.36900000E+00  1.22200000E+01  1.20800000E+00
  3.63400000E-01  4.43600000E+01  1.00800000E+01  2.99600000E+00  9.38300000E-01
  2.73300000E-01
Contraction coefficients                   R   N=          66
  1.21999969E-03  9.34199761E-03  4.54519884E-02  1.54656960E-01  3.58865908E-01
  4.38631888E-01  1.45917963E-01 -1.68366956E-01  1.06009072E+00  1.00000000E+00
  1.85389998E-02  1.15435999E-01  3.86187996E-01  6.40113993E-01  1.00000000E+00
 -2.97310475E+00  3.48276424E+00  1.00000000E+00 -2.09237710E-01  1.10353475E+00
  1.00000000E+00  1.16599858E-03  8.87598917E-03  4.23799483E-02  1.42928826E-01
  3.55371566E-01  4.62084436E-01  1.40847828E-01 -1.48451921E-01  1.05526944E+00
  1.00000000E+00  2.08760024E-02  1.30107015E-01  3.96166046E-01  6.20404071E-01
  1.00000000E+00  1.16599858E-03  8.87598917E-03  4.23799483E-02  1.42928826E-01
  3.55371566E-01  4.62084436E-01  1.40847828E-01 -1.48451921E-01  1.05526944E+00
  1.00000000E+00  2.08760024E-02  1.30107015E-01  3.96166046E-01  6.20404071E-01
  1.00000000E+00  1.16599858E-03  8.87598917E-03  4.23799483E-02  1.42928826E-01
  3.55371566E-01  4.62084436E-01  1.40847828E-01 -1.48451921E-01  1.05526944E+00
  1.00000000E+00  2.08760024E-02  1.30107015E-01  3.96166046E-01  6.20404071E-01
  1.00000000E+00
Coordinates of each shell                  R   N=          72
 -2.22609392E+00 -2.02337498E-04  5.06459552E-05 -2.22609392E+00 -2.02337498E-04
  5.06459552E-05 -2.22609392E+00 -2.02337498E-04  5.06459552E-05 -2.22609392E+00
 -2.02337498E-04  5.06459552E-05 -2.22609392E+00 -2.02337498E-04  5.06459552E-05
  1.87834323E+00 -9.47531309E-05  4.03780639E-05  1.87834323E+00 -9.47531309E-05
  4.03780639E-05  1.87834323E+00 -9.47531309E-05  4.03780639E-05  1.87834323E+00
 -9.47531309E-05  4.03780639E-05 -3.19165999E+00  2.43798529E+00  2.29635885E-01
 -3.19165999E+00  2.43798529E+00  2.29635885E-01 -3.19165999E+00  2.43798529E+00
  2.29635885E-01 -3.19165999E+00  2.43798529E+00  2.29635885E-01 -3.19165999E+00
  2.43798529E+00  2.29635885E-01 -3.19245978E+00 -1.01968507E+00 -2.22598079E+00
 -3.19245978E+00 -1.01968507E+00 -2.22598079E+00 -3.19245978E+00 -1.01968507E+00
 -2.22598079E+00 -3.19245978E+00 -1.01968507E+00 -2.22598079E+00 -3.19245978E+00
 -1.01968507E+00 -2.22598079E+00 -3.19317220E+00 -1.41760734E+00  1.99607336E+00
 -3.19317220E+00 -1.41760734E+00  1.99607336E+00 -3.19317220E+00 -1.41760734E+00
  1.99607336E+00 -3.19317220E+00 -1.41760734E+00  1.99607336E+00 -3.19317220E+00
 -1.41760734E+00  1.99607336E+00
Num ILSW                                   I              100
ILSW                                       I   N=         100
           0           0           0           1           2           0
           0           0           0           0         402          -1
           5           0           0           0           2           0
           0           0           1           0           1           0
           1           0           0           0           0           0
           0           0      100000           0          -1           0
           0           0           0           0           0           0
           0           0           0           1           0           0
           0 -2000000000           1           0           0           0
           0           0           4          52           0           0
           0           0           5           0           0           0
           0           0           0           0           0           1
           0           0           0           0           0           0
           0           0           0           0           0           0
           0           0           0           0           0           0
           0           0           0           0           0           0
           0           0           0           0
Num RLSW                                   I               52
RLSW                                       R   N=          52
  8.00000000E-01  7.20000000E-01  1.00000000E+00  8.10000000E-01  2.00000000E-01
  0.00000000E+00  0.00000000E+00  1.00000000E+00  0.00000000E+00  0.00000000E+00
  0.00000000E+00  0.00000000E+00  1.00000000E+00  0.00000000E+00  0.00000000E+00
  0.00000000E+00  0.00000000E+00  1.00000000E+00  0.00000000E+00  0.00000000E+00
  0.00000000E+00  0.00000000E+00  1.00000000E+00  0.00000000E+00  0.00000000E+00
  0.00000000E+00  0.00000000E+00  1.00000000E+00  0.00000000E+00  0.00000000E+00
  0.00000000E+00  0.00000000E+00  1.00000000E+00  0.00000000E+00  0.00000000E+00
  0.00000000E+00  0.00000000E+00  0.00000000E+00  1.00000000E+00  1.00000000E+00
  0.00000000E+00  1.00000000E+00  0.00000000E+00  0.00000000E+00  0.00000000E+00
  0.00000000E+00  0.00000000E+00  0.00000000E+00  0.00000000E+00  0.00000000E+00
  0.00000000E+00  0.00000000E+00
ECP-MxAtEC                                 I           250000
ECP-MaxLECP                                I               10
ECP-MaxAtL                                 I          2250000
ECP-MxTECP                                 I         11250000
ECP-LenNCZ                                 I               20
ECP-KFirst                                 I   N=          50
           0           1           0           0           0           0
           6           0           0           0           0          11
           0           0           0           0          16           0
           0           0           0           0           0           0
           0           0           0           0           0           0
           0           0           0           0           0           0
           0           0           0           0           0           0
           0           0           0           0           0           0
           0           0
ECP-KLast                                  I   N=          50
           0           5           0           0           0           0
          10           0           0           0           0          15
           0           0           0           0          20           0
           0           0           0           0           0           0
           0           0           0           0           0           0
           0           0           0           0           0           0
           0           0           0           0           0           0
           0           0           0           0           0           0
           0           0
ECP-LMax                                   I   N=           5
           0           3           0           0           0
ECP-LPSkip                                 I   N=           5
           1           0           1           1           1
ECP-RNFroz                                 R   N=           5
  0.00000000E+00  4.60000000E+01  0.00000000E+00  0.00000000E+00  0.00000000E+00
ECP-NLP                                    I   N=          20
           0           1           2           2           2           0
           1           2           2           2           0           1
           2           2           2           0           1           2
           2           2
ECP-CLP1                                   R   N=          20
 -7.47621000E-02 -3.00811224E+01 -7.53722721E+01 -2.20563758E+01 -1.69795850E+00
  2.93800360E+00  4.12471267E+01  2.87868010E+02  1.14375851E+02  3.76547714E+01
  2.22226300E+00  3.94090831E+01  1.77407500E+02  7.79889462E+01  2.57547641E+01
  7.05243600E+00  3.33041635E+01  1.86945388E+02  7.19688361E+01  9.36306570E+00
ECP-CLP2                                   R   N=          20
  0.00000000E+00  0.00000000E+00  0.00000000E+00  0.00000000E+00  0.00000000E+00
  0.00000000E+00  0.00000000E+00  0.00000000E+00  0.00000000E+00  0.00000000E+00
  0.00000000E+00  0.00000000E+00  0.00000000E+00  0.00000000E+00  0.00000000E+00
  0.00000000E+00  0.00000000E+00  0.00000000E+00  0.00000000E+00  0.00000000E+00
ECP-ZLP                                    R   N=          20
  1.07157020E+00  4.41936028E+01  1.29367609E+01  3.19564120E+00  8.58980600E-01
  1.27920267E+02  7.86211465E+01  3.65146237E+01  9.90656810E+00  1.94200860E+00
  1.30035304E+01  7.60331404E+01  2.41961684E+01  6.40534330E+00  1.58517860E+00
  4.04278108E+01  2.89084375E+01  1.56268936E+01  4.14428560E+00  9.37723500E-01
MxBond                                     I                4
NBond                                      I   N=           5
           4           1           1           1           1
IBond                                      I   N=          20
           2           3           4           5           1           0
           0           0           1           0           0           0
           1           0           0           0           1           0
           0           0
RBond                                      R   N=          20
  1.00000000E+00  1.00000000E+00  1.00000000E+00  1.00000000E+00  1.00000000E+00
  0.00000000E+00  0.00000000E+00  0.00000000E+00  1.00000000E+00  0.00000000E+00
  0.00000000E+00  0.00000000E+00  1.00000000E+00  0.00000000E+00  0.00000000E+00
  0.00000000E+00  1.00000000E+00  0.00000000E+00  0.00000000E+00  0.00000000E+00
Virial Ratio                               R      2.029285072213164E+00
SCF Energy                                 R     -3.490014601558866E+02
Total Energy                               R     -3.490014601558866E+02
RMS Force                                  R      2.557406384731043E-05
RMS Density                                R      4.662435995577553E-09
Job Status                                 I                1
Nuclear derivative order                   I                1
External E-field                           R   N=          35
  0.00000000E+00  0.00000000E+00  0.00000000E+00  0.00000000E+00  0.00000000E+00
  0.00000000E+00  0.00000000E+00  0.00000000E+00  0.00000000E+00  0.00000000E+00
  0.00000000E+00  0.00000000E+00  0.00000000E+00  0.00000000E+00  0.00000000E+00
  0.00000000E+00  0.00000000E+00  0.00000000E+00  0.00000000E+00  0.00000000E+00
  0.00000000E+00  0.00000000E+00  0.00000000E+00  0.00000000E+00  0.00000000E+00
  0.00000000E+00  0.00000000E+00  0.00000000E+00  0.00000000E+00  0.00000000E+00
  0.00000000E+00  0.00000000E+00  0.00000000E+00  0.00000000E+00  0.00000000E+00
IOpCl                                      I                0
IROHF                                      I                0
Alpha Orbital Energies                     R   N=          44
 -2.47683378E+01 -2.47683226E+01 -2.47682721E+01 -1.05068509E+01 -1.33772270E+00
 -1.25461209E+00 -1.25455705E+00 -7.79723927E-01 -6.98406860E-01 -6.11056857E-01
 -6.11039265E-01 -5.71506227E-01 -4.88545941E-01 -4.88538163E-01 -4.60398378E-01
 -4.60377285E-01 -4.42700235E-01 -3.99741119E-01 -3.13411051E-01 -3.13405307E-01
 -1.08830684E-01  6.00583870E-02  6.01006121E-02  8.38902419E-02  2.59193772E-01
  2.89519856E-01  2.89544714E-01  3.68931773E-01  3.74731918E-01  3.74733612E-01
  5.63160527E-01  7.49110940E-01  7.49135360E-01  8.42100382E-01  8.42126331E-01
  8.58666106E-01  9.67050544E-01  1.06836431E+00  1.06836539E+00  1.14461497E+00
  1.85994927E+00  1.86004135E+00  2.15180682E+00  9.95851953E+00
Alpha MO coefficients                      R   N=        1936
 -7.20351845E-06 -4.16530132E-05  1.32464842E-03 -1.66260542E-04 -1.45903433E-04
  2.48407760E-04 -3.24976793E-04 -3.71866458E-04  6.33251888E-04 -1.43015692E-05
 -2.67436908E-05  7.17409988E-05  1.82156909E-06 -3.10100344E-06  2.13143961E-05
  7.17824895E-05 -1.22234965E-04 -2.73083917E-02 -6.34035619E-05 -2.10903428E-04
 -2.56082520E-05  4.74429336E-05  9.18769869E-06  5.06039238E-05  1.01197982E-04
 -9.64378983E-05 -1.34360317E-01 -5.79388619E-04  7.42089701E-05 -7.02286708E-05
 -7.05279675E-05 -1.43810375E-04  9.63619998E-05  8.88187581E-05 -3.51960303E-05
  9.89610271E-01  4.83761269E-03 -2.91859535E-03  3.98354296E-04  5.88560011E-04
 -8.28066478E-04 -3.84395002E-04 -5.93052451E-04  8.17766844E-04 -9.36096527E-06
 -5.41802278E-05  1.72086195E-03 -2.15908386E-04 -1.43521813E-04 -2.13257494E-04
 -4.21706750E-04 -3.65718215E-04 -5.43628509E-04 -1.86031570E-05 -3.49190926E-05
  9.32884375E-05  1.79450111E-06  2.66772097E-06  2.77147861E-05  7.05733434E-05
  1.04900102E-04 -4.66288893E-02 -1.36110805E-04 -2.44303647E-04 -3.78921210E-05
  7.41613714E-05  3.38367272E-06  7.03909317E-05  1.01017455E-04  9.02590268E-05
  9.89072918E-01  4.85541614E-03 -3.00194918E-03  3.93559107E-04  4.19707686E-04
  9.18264215E-04 -3.72273103E-04 -4.19647195E-04 -9.56693787E-04  1.33007355E-01
  7.29570157E-04 -7.22466768E-04  3.69485669E-05  6.23726062E-05 -9.53052835E-05
 -6.43914929E-06 -7.78477332E-05  2.77477892E-04 -9.38233253E-06 -5.42450598E-05
  1.71782223E-03 -2.15448472E-04  2.56457030E-04  2.19750030E-05 -4.20507637E-04
  6.53825751E-04  5.59805818E-05 -1.86000287E-05 -3.50251930E-05  9.32244454E-05
 -3.21793810E-06 -2.74840976E-07  2.76771531E-05 -1.26119247E-04 -1.07990798E-05
  9.97601775E-01  4.89619389E-03 -3.02374312E-03  3.96666244E-04 -1.01404814E-03
 -9.55166284E-05 -3.75612082E-04  1.04726791E-03  9.95011612E-05  4.25597328E-02
  2.93564402E-04 -4.81126818E-04 -7.24195559E-07  1.16818170E-05  1.57988043E-05
  3.20989318E-05 -1.61234658E-04 -1.34433440E-04  3.33140018E-02  2.48985357E-04
 -4.56442679E-04 -4.57373830E-06  8.79864543E-06 -5.47833217E-06  3.60256785E-05
 -1.77975106E-04  9.56637827E-05  9.97752378E-01  1.27941549E-02 -4.01696720E-03
 -1.26139040E-03 -2.45149448E-07 -2.50768598E-07 -1.21154371E-03 -2.83114382E-07
  1.83631341E-07 -3.18076080E-05  1.27010585E-03 -1.75805490E-04  3.58880897E-08
 -1.01689838E-08 -9.61049444E-04 -1.40828296E-08 -1.82791638E-08 -1.75585610E-05
  3.71372550E-04 -6.38989911E-04 -4.94895810E-05  9.22971395E-06  8.82907668E-07
 -6.62884908E-06  9.18777670E-04  8.64592005E-05 -1.75774410E-05  3.71581928E-04
 -6.39902327E-04 -4.95406705E-05 -3.91350617E-06 -8.49943348E-06 -7.08934017E-06
 -3.84344948E-04 -8.39464921E-04 -1.75766909E-05  3.71698548E-04 -6.40291560E-04
 -4.95573524E-05 -5.42158987E-06  7.62576517E-06 -7.35147659E-06 -5.34515321E-04
  7.52802841E-04 -1.01798235E-01  2.16473114E-01  7.61671055E-02 -8.10177839E-02
 -8.25272712E-05 -1.85050273E-05  1.57764656E-02  1.58787104E-05  5.44074965E-07
  7.21038212E-03 -8.56650845E-04 -1.01198654E-02  3.03227665E-07 -4.59913194E-07
  5.06838932E-03 -3.07639946E-06 -4.38973372E-07 -1.26692719E-01  2.79056367E-01
  2.28761032E-01  2.81747013E-02 -8.44374556E-02 -7.95158271E-03  4.89518278E-03
 -1.46386117E-02 -1.37783547E-03 -1.26857383E-01  2.79419129E-01  2.29067363E-01
  2.82472669E-02  3.53479194E-02  7.71939312E-02  4.90376307E-03  6.12396732E-03
  1.33771127E-02 -1.26869880E-01  2.79446723E-01  2.29093697E-01  2.82741608E-02
  4.91510220E-02 -6.92256498E-02  4.90788420E-03  8.51640091E-03 -1.19960670E-02
  7.24830020E-06 -1.45280239E-05 -1.05513250E-05 -2.81644069E-05 -2.60766283E-02
  1.63086130E-01  1.45636949E-06  1.84473028E-03 -1.15406820E-02 -2.94610222E-06
 -3.54862123E-06  2.61924205E-06 -2.44478785E-04  1.53105193E-03 -9.34027403E-08
 -7.05912393E-04  4.41717895E-03  1.29583187E-02 -2.84713445E-02 -2.51491818E-02
 -2.71721579E-03  4.68440014E-03  1.40802389E-02 -4.11784959E-04  1.04029051E-03
  3.18484192E-04  1.66911502E-01 -3.66727157E-01 -3.23962362E-01 -3.50062919E-02
 -3.89530623E-02 -6.69200872E-02 -5.31131078E-03 -5.82381318E-03 -1.24252177E-02
 -1.79843687E-01  3.95141565E-01  3.49065871E-01  3.77396773E-02  5.29827736E-02
 -6.41971245E-02  5.72632450E-03  8.63756915E-03 -1.19969039E-02 -4.72493380E-05
  9.83157813E-05  5.55123564E-05  2.14467555E-05  1.63057635E-01  2.60741113E-02
 -1.60015729E-06 -1.15277645E-02 -1.84394790E-03  8.59505903E-06  8.25379890E-06
 -9.07176043E-06  1.53335388E-03  2.45534614E-04  1.30224876E-06  4.41612289E-03
  7.06522430E-04 -2.00274798E-01  4.40027601E-01  3.88726551E-01  4.19536914E-02
 -9.21432249E-02 -7.79260913E-03  6.37086508E-03 -1.64035892E-02 -1.53019519E-03
  1.11240303E-01 -2.44408791E-01 -2.15922522E-01 -2.33227793E-02 -1.10800785E-02
 -5.13991491E-02 -3.53947138E-03 -3.64147201E-03 -8.39048310E-03  8.88108466E-02
 -1.95129057E-01 -1.72386502E-01 -1.86326204E-02 -1.37770746E-02  4.04831103E-02
 -2.82701308E-03 -4.06563013E-03  6.06529348E-03 -1.23897510E-01  3.08466166E-01
  1.69313558E-01  1.49180612E-01 -2.00830118E-05  1.18818440E-06  7.08462991E-02
  8.54475343E-07  1.28935176E-06  2.60834958E-01  3.74091442E-01 -9.97534705E-02
 -8.14010389E-06  1.31717890E-06  9.22584290E-04 -5.00318349E-06  1.26929524E-06
  4.98483331E-02 -1.12966287E-01 -1.31373660E-01  8.76651207E-02 -1.02142106E-01
 -9.61566736E-03  1.61942575E-02 -3.78387845E-02 -3.56135792E-03  4.98496441E-02
 -1.12972599E-01 -1.31367780E-01  8.77229425E-02  4.27158552E-02  9.32802180E-02
  1.62127183E-02  1.58252603E-02  3.45601825E-02  4.98406333E-02 -1.12955329E-01
 -1.31330924E-01  8.77400605E-02  5.93819298E-02 -8.36266917E-02  1.62196932E-02
  2.20049034E-02 -3.09891179E-02  1.08188743E-01 -3.01425226E-01 -1.04833529E-01
  2.09611599E-01  5.60087649E-05  9.80876835E-06 -5.45977481E-02 -1.53367724E-05
 -2.78648875E-06  2.31442950E-01  4.04372495E-01  7.99137828E-04  1.67341615E-07
 -4.84713336E-07 -2.98755275E-02  6.18757369E-06 -1.40617634E-06 -5.40783577E-02
  1.24157375E-01  1.46065297E-01 -2.82061302E-02  2.45140042E-01  2.30843577E-02
 -2.07006906E-03  8.84673355E-02  8.33077074E-03 -5.41137876E-02  1.24239435E-01
  1.46168571E-01 -2.83592695E-02 -1.02594897E-01 -2.24037435E-01 -2.11775417E-03
 -3.70183221E-02 -8.08406310E-02 -5.41227081E-02  1.24260740E-01  1.46192676E-01
 -2.84597482E-02 -1.42677946E-01  2.00941168E-01 -2.15231816E-03 -5.14811853E-02
  7.25063593E-02  7.36720624E-06 -1.99159552E-05 -1.40116506E-05 -7.41668737E-05
 -9.42883681E-02  4.31787491E-01  5.14657305E-06  1.68422351E-03 -7.72252655E-03
  3.89842337E-05  6.55460210E-05  2.19001170E-05 -6.18941206E-03  2.83416911E-02
  3.19404685E-06 -4.18881887E-03  1.91769525E-02 -7.14207737E-03  1.61007448E-02
  2.29585231E-02 -2.60903108E-02  2.50646504E-02  2.29868111E-01 -8.80985279E-03
  6.86490879E-03  9.38050152E-02 -4.72652424E-02  1.06554292E-01  1.51935940E-01
 -1.72728952E-01 -2.52905068E-01 -2.22759735E-01 -5.83086118E-02 -9.41476144E-02
 -7.06693856E-02  5.43950333E-02 -1.22627958E-01 -1.74855284E-01  1.98891159E-01
  2.78028659E-01 -2.37046077E-01  6.71351554E-02  9.87870709E-02 -7.58622568E-02
 -3.29973919E-05  8.28053679E-05  6.77579719E-05  7.75968009E-05  4.31775569E-01
  9.42872627E-02 -8.40923364E-06 -7.67643282E-03 -1.67836204E-03 -7.18511541E-05
 -1.23871709E-04 -4.29051298E-05  2.83440603E-02  6.18902289E-03 -3.37325061E-06
  1.91593731E-02  4.18266584E-03  5.87023103E-02 -1.32336907E-01 -1.88701483E-01
  2.14207764E-01 -3.83261458E-01 -8.40220583E-03  7.23041026E-02 -1.29008851E-01
 -8.12415981E-04 -3.55121685E-02  8.00575723E-02  1.14162933E-01 -1.29742373E-01
  6.96799816E-02 -2.86346980E-01 -4.37891570E-02  3.55985950E-02 -1.01812784E-01
 -2.31480942E-02  5.21842866E-02  7.44170005E-02 -8.46387891E-02  8.40598085E-02
  2.44605984E-01 -2.85656518E-02  4.08245574E-02  9.11328691E-02  3.97948359E-02
 -8.08588444E-02 -1.34771465E-01 -3.60519297E-01  1.10626187E-04 -5.44977357E-05
 -1.12875609E-01  3.64978957E-05 -7.87793690E-06  1.88523648E-01  3.69636689E-01
  1.42758940E-01  7.15709573E-06 -3.79229186E-07  3.95077391E-02 -3.52344050E-06
  2.61639414E-06  4.77358782E-03 -8.05446723E-03 -2.57456450E-02 -2.61628547E-01
 -1.43333695E-01 -1.35538488E-02 -1.01450333E-01 -5.21954114E-02 -4.93844156E-03
  4.77631189E-03 -8.06168022E-03 -2.57545693E-02 -2.61795192E-01  6.01331204E-02
  1.31080305E-01 -1.01523012E-01  2.19014256E-02  4.77429682E-02  4.77466774E-03
 -8.05656810E-03 -2.57553939E-02 -2.61791338E-01  8.35735595E-02 -1.17631313E-01
 -1.01521758E-01  3.04382225E-02 -4.28486810E-02 -1.56391396E-05  3.52318379E-05
  6.02352468E-05  1.17363331E-04  6.52331502E-02  9.81784414E-03 -4.89853782E-06
 -5.10342573E-02 -7.68199042E-03 -4.57242225E-05 -8.18036684E-05 -9.81156970E-05
  1.84799190E-02  2.78978400E-03 -3.92960798E-05  2.85243753E-02  4.29974134E-03
  4.76603643E-03 -1.50501378E-02  7.78420789E-03  3.92023427E-01 -5.34200267E-02
 -3.11608792E-02  1.89824668E-01 -1.48996809E-02 -1.39644764E-02 -2.60795187E-03
  8.23735315E-03 -4.28107540E-03 -2.14985052E-01 -3.71452471E-01  1.36414400E-01
 -1.04096787E-01 -1.76083149E-01  7.09754786E-02 -2.14996287E-03  6.79094413E-03
 -3.53221828E-03 -1.77253783E-01 -3.57689721E-01 -2.23042827E-01 -8.58249917E-02
 -1.69100612E-01 -1.11209238E-01 -2.64387864E-06  8.10544500E-06  4.68812153E-06
  2.81509345E-05  9.79816470E-03 -6.50880325E-02 -2.00547998E-05 -7.67304859E-03
  5.09750936E-02 -1.10052344E-05 -1.21817846E-05 -2.75700321E-05  2.76846885E-03
 -1.84478776E-02 -1.25027592E-05  4.28350045E-03 -2.85000044E-02  2.63969331E-04
 -8.33219858E-04  4.30349321E-04  2.16811589E-02 -4.72116218E-02  4.68070543E-01
  1.05003408E-02 -2.20991604E-02  2.25080316E-01  3.98173552E-03 -1.25778130E-02