[Molden Format]
[Title]
 Molden file created by orca_2mkl for BaseName=CF3_opt_g16

[Atoms] AU
C    1   6          3.3735934264        -0.0000367885        -0.0000147797 
I    2   7         -0.7157231876        -0.0000316128        -0.0001030116 
F    3   9          4.2277213184         2.3305851857         0.2170099285 
F    4   9          4.2267096327        -1.3530634338         1.9104191444 
F    5   9          4.2280001736        -0.9777915361        -2.1266408258 
[Pseudo]
I    2  25
[GTO]
  1 0
s   5 1.0 
     1238.4016938000         0.8208956682
      186.2900499200         1.4766449896
       42.2511763460         2.1526124058
       11.6765579320         2.1081722461
        3.5930506482         0.8290999933
s   1 1.0 
        0.4024514736         0.3601183351
s   1 1.0 
        0.1309018267         0.1551027052
p   3 1.0 
        9.4680970621         1.3467645142
        2.0103545142         1.0678070931
        0.5477100471         0.5108735714
p   1 1.0 
        0.1526861379         0.1360471976
d   1 1.0 
        0.8000000000         1.9292013661

  2 0
s   6 1.0 
      445.9048917600         0.1523254805
       23.3368424120        -1.2468598403
       19.5834461040         2.6573887206
        8.5112089186        -2.9489106247
        2.1996161861         1.1718666918
        1.0668970454         0.3467409850
s   2 1.0 
       11.7205475720        -0.2120650862
        1.7625986449         1.1177634433
s   1 1.0 
        0.2869747632         0.2794427663
s   1 1.0 
        0.1122760961         0.1382374041
p   4 1.0 
       20.4990272540         5.2575384543
       10.5587545760       -11.4087824718
        1.5015895485         2.1696246770
        0.6459717310         0.1518707391
p   1 1.0 
        3.0288656771         5.6956081815
p   1 1.0 
        0.3450659184         0.3769794456
p   1 1.0 
        0.1113451381         0.0916809618
d   5 1.0 
       51.2353549200        11.4725946853
       15.6162394820        -1.8049836144
        4.5266002139        11.8680439579
        2.0529808766         5.2192354531
        0.8764028162         0.7185470426
d   1 1.0 
        0.3090000000         0.3650878858

  3 0
s   5 1.0 
     2894.8325990000        -1.5046183743
      435.4193912000        -2.7151913889
       98.8433288660        -4.0084234848
       27.4851980010        -4.0066489820
        8.5405498171        -1.5924531440
s   1 1.0 
        1.0654578038         0.7474158152
s   1 1.0 
        0.3324734675         0.3120526226
p   3 1.0 
       22.6966339240        -4.5745381020
        4.9872339257        -3.6157678437
        1.3491613954        -1.5230827082
p   1 1.0 
        0.3482988198         0.3813994755
d   1 1.0 
        1.4000000000         5.1368176128

  4 0
s   5 1.0 
     2894.8325990000        -1.5046183743
      435.4193912000        -2.7151913889
       98.8433288660        -4.0084234848
       27.4851980010        -4.0066489820
        8.5405498171        -1.5924531440
s   1 1.0 
        1.0654578038         0.7474158152
s   1 1.0 
        0.3324734675         0.3120526226
p   3 1.0 
       22.6966339240        -4.5745381020
        4.9872339257        -3.6157678437
        1.3491613954        -1.5230827082
p   1 1.0 
        0.3482988198         0.3813994755
d   1 1.0 
        1.4000000000         5.1368176128

  5 0
s   5 1.0 
     2894.8325990000        -1.5046183743
      435.4193912000        -2.7151913889
       98.8433288660        -4.0084234848
       27.4851980010        -4.0066489820
        8.5405498171        -1.5924531440
s   1 1.0 
        1.0654578038         0.7474158152
s   1 1.0 
        0.3324734675         0.3120526226
p   3 1.0 
       22.6966339240        -4.5745381020
        4.9872339257        -3.6157678437
        1.3491613954        -1.5230827082
p   1 1.0 
        0.3482988198         0.3813994755
d   1 1.0 
        1.4000000000         5.1368176128

[5D]
[7F]
[9G]
[MO]
 Sym=     1a
 Ene= -2.48368216342624E+01
 Spin= Alpha
 Occup= 2.000000
  1      -0.000056219020
  2       0.000823231599
  3       0.022046237569
  4       0.001520054844
  5       0.000109169108
  6       0.000054913343
  7       0.003268674193
  8       0.000901601232
  9       0.000451745594
 10       0.000093648364
 11      -0.000000001483
 12       0.000007687370
 13      -0.000099726268
 14       0.000004266767
 15       0.000061537704
 16       0.000006769091
 17       0.001285875093
 18      -0.004466828572
 19       0.000337318198
 20       0.000009586730
 21       0.000005030209
 22       0.000032359574
 23       0.000000755120
 24       0.000000408856
 25      -0.000862844547
 26      -0.000018267103
 27      -0.000010229743
 28      -0.002791012955
 29      -0.000121429658
 30      -0.000059047619
 31      -0.000110589301
 32       0.000010529863
 33       0.000001549322
 34       0.000207228789
 35       0.000021622569
 36       0.000709704523
 37      -0.000057866886
 38      -0.000004788225
 39      -0.001277633182
 40      -0.000117427911
 41      -0.655529115324
 42       0.026885158358
 43      -0.019423497530
 44       0.000265042564
 45       0.000994321144
 46       0.000083537515
 47       0.000835854243
 48       0.004265329253
 49       0.000326580124
 50       0.000183585452
 51      -0.000002054589
 52      -0.000044227018
 53       0.000201665939
 54      -0.000113961469
 55      -0.553330408918
 56       0.022856817307
 57      -0.017078222011
 58       0.000190399954
 59      -0.000494757523
 60       0.000657095696
 61       0.000600350095
 62      -0.002375376759
 63       0.003024917272
 64      -0.000098339124
 65      -0.000063514749
 66       0.000239209419
 67       0.000027257100
 68       0.000072031912
 69      -0.491821958397
 70       0.020444804981
 71      -0.015695832004
 72       0.000145816476
 73      -0.000314502909
 74      -0.000644801260
 75       0.000465013339
 76      -0.001610271628
 77      -0.003208306473
 78      -0.000165645141
 79       0.000069671488
 80      -0.000188515095
 81      -0.000017162523
 82       0.000048394517
 Sym=     1a
 Ene= -2.48367603866802E+01
 Spin= Alpha
 Occup= 2.000000
  1      -0.000005046686
  2       0.000074324756
  3       0.002034151958
  4       0.000141056020
  5      -0.001010774385
  6       0.000219536586
  7       0.000292160634
  8      -0.008325854811
  9       0.001809349781
 10      -0.000196049876
 11       0.000007439380
 12       0.000125529181
 13      -0.000126815274
 14      -0.000038216709
 15       0.000005925467
 16       0.000000799175
 17       0.000118179907
 18      -0.000415658769
 19       0.000031650060
 20      -0.000089346450
 21       0.000019275876
 22       0.000003035945
 23      -0.000007051863
 24       0.000001533212
 25      -0.000081586461
 26       0.000172081607
 27      -0.000037117058
 28      -0.000259346466
 29       0.001115993067
 30      -0.000242541496
 31      -0.000062457416
 32       0.000043134194
 33       0.000031969316
 34      -0.000010888942
 35      -0.000199104571
 36       0.000227093827
 37      -0.000234790777
 38      -0.000098625889
 39      -0.000026004724
 40       0.001082469048
 41       0.714144700413
 42      -0.028027165710
 43       0.015910827613
 44      -0.000533579347
 45      -0.001226529356
 46      -0.000177451415
 47      -0.001672575077
 48      -0.002830972850
 49      -0.000759263192
 50      -0.000031476837
 51       0.000071077992
 52       0.000044775909
 53      -0.000093183293
 54       0.000130571600
 55      -0.646119663097
 56       0.025542461801
 57      -0.015167373105
 58       0.000445878349
 59      -0.000519092170
 60       0.000977035536
 61       0.001399612260
 62      -0.000760593288
 63       0.002983892134
 64      -0.000116833312
 65      -0.000175160991
 66       0.000074889789
 67       0.000003884572
 68      -0.000037290682
 69      -0.224879480406
 70       0.008956801161
 71      -0.005551367662
 72       0.000143060404
 73       0.000028581563
 74      -0.000424866719
 75       0.000450707153
 76       0.000994188358
 77      -0.001658017909
 78      -0.000103290399
 79       0.000117481661
 80       0.000029211305
 81      -0.000033072432
 82      -0.000154546697
 Sym=     1a
 Ene= -2.48367488524428E+01
 Spin= Alpha
 Occup= 2.000000
  1      -0.000004671498
  2       0.000062898679
  3       0.001678815311
  4       0.000115826309
  5      -0.000214518395
  6      -0.001014465030
  7       0.000256052370
  8      -0.001758394399
  9      -0.008349368608
 10      -0.000101293038
 11      -0.000038662173
 12      -0.000234405952
 13      -0.000070797615
 14      -0.000007968992
 15       0.000004279194
 16       0.000000176345
 17       0.000100242305
 18      -0.000339836248
 19       0.000025206490
 20      -0.000019046878
 21      -0.000089899872
 22       0.000002394152
 23      -0.000001495572
 24      -0.000007091197
 25      -0.000063501076
 26       0.000036829590
 27       0.000173568281
 28      -0.000212758532
 29       0.000235291033
 30       0.001117957072
 31      -0.000036281977
 32      -0.000199637385
 33      -0.000059759500
 34      -0.000000265104
 35      -0.000042104126
 36       0.000139708784
 37       0.001085454093
 38       0.000184378947
 39      -0.000047279125
 40       0.000228805479
 41       0.195540239979
 42      -0.007617716156
 43       0.004123891121
 44      -0.000157003147
 45      -0.000362055598
 46       0.000166338125
 47      -0.000492488800
 48      -0.000854490066
 49       0.001490156880
 50      -0.000018633924
 51      -0.000181562037
 52      -0.000093236598
 53      -0.000029721909
 54       0.000055250340
 55       0.504294553576
 56      -0.019776135374
 57       0.011177571296
 58      -0.000378728233
 59       0.000630582544
 60      -0.000625449997
 61      -0.001188203715
 62       0.002147568753
 63      -0.000954605309
 64      -0.000022810591
 65      -0.000003554670
 66      -0.000076798739
 67      -0.000065160223
 68      -0.000171817065
 69      -0.827945746508
 70       0.032695376287
 71      -0.019268168378
 72       0.000579555867
 73      -0.000632905348
 74      -0.001262864633
 75       0.001820173019
 76      -0.001846264200
 77      -0.003141769527
 78      -0.000096088877
 79       0.000124730995
 80      -0.000110286016
 81       0.000036145765
 82       0.000105541422
 Sym=     1a
 Ene= -1.05290644494742E+01
 Spin= Alpha
 Occup= 2.000000
  1       0.988806420308
  2       0.044565245202
  3      -0.009143099643
  4       0.002372735603
  5      -0.000000293483
  6       0.000000194448
  7       0.007954472580
  8       0.000007234969
  9      -0.000007187800
 10       0.000916237405
 11      -0.000002168659
 12       0.000001495264
 13      -0.001586786079
 14       0.000001002003
 15       0.000183920315
 16       0.000129163394
 17      -0.001338028370
 18       0.005231018491
 19       0.000254071644
 20      -0.000000070121
 21      -0.000000049940
 22       0.000038429086
 23      -0.000000015888
 24      -0.000000009665
 25      -0.000134869356
 26       0.000000355279
 27      -0.000000010235
 28       0.003337935660
 29      -0.000001553004
 30       0.000001461925
 31      -0.000090010140
 32      -0.000000293938
 33      -0.000000033271
 34       0.000155995545
 35       0.000000171557
 36       0.000111229609
 37       0.000001357903
 38       0.000000091611
 39      -0.000192926372
 40      -0.000000964240
 41       0.000067443577
 42       0.001264040302
 43      -0.006360963993
 44      -0.000314065559
 45      -0.000206227832
 46      -0.000019186972
 47       0.000492455595
 48       0.005424956629
 49       0.000506131336
 50       0.000632770646
 51      -0.000055848072
 52      -0.000183493681
 53       0.000860834663
 54      -0.000593492333
 55       0.000066957774
 56       0.001259299442
 57      -0.006345406434
 58      -0.000314771792
 59       0.000119616532
 60      -0.000169369272
 61       0.000486219185
 62      -0.003147761569
 63       0.004443329822
 64      -0.000500647435
 65      -0.000484935470
 66       0.000939249384
 67       0.000205895731
 68       0.000344039924
 69       0.000067799191
 70       0.001266632842
 71      -0.006363773204
 72      -0.000316173780
 73       0.000084943867
 74       0.000187954354
 75       0.000489170236
 76      -0.002280569431
 77      -0.004950744676
 78      -0.000775603211
 79       0.000541947907
 80      -0.000755746664
 81       0.000047226809
 82       0.000249163867
 Sym=     1a
 Ene= -6.92164198754186E+00
 Spin= Alpha
 Occup= 2.000000
  1      -0.000009757981
  2       0.000020365362
  3      -0.000062214494
  4       0.000006642295
  5      -0.000000004658
  6      -0.000000257900
  7       0.000155123489
  8       0.000003488734
  9      -0.000002841660
 10       0.000018600370
 11      -0.000000378099
 12       0.000000375503
 13      -0.000032493658
 14       0.000000201888
 15       0.914238287318
 16       0.084359359937
 17       0.012712874275
 18      -0.001819318562
 19       0.002296509986
 20      -0.000000147209
 21      -0.000000262351
 22       0.001997586926
 23      -0.000000278488
 24      -0.000000129844
 25       0.000139561794
 26      -0.000000447379
 27       0.000000679974
 28      -0.000006461864
 29      -0.000000560268
 30      -0.000000235165
 31      -0.001410064473
 32      -0.000000663928
 33       0.000000116284
 34       0.002442473231
 35       0.000000506179
 36       0.000009424897
 37       0.000000604961
 38       0.000000042079
 39      -0.000017031221
 40      -0.000001389203
 41      -0.000003041185
 42      -0.000023544702
 43       0.000046550290
 44      -0.000012750776
 45       0.000002761983
 46       0.000000428524
 47      -0.000061430506
 48       0.000014730574
 49       0.000002330858
 50      -0.000000432195
 51       0.000000294009
 52      -0.000000616052
 53       0.000006260430
 54       0.000002682432
 55      -0.000003218852
 56      -0.000025354009
 57       0.000052709990
 58      -0.000012777756
 59      -0.000001648300
 60       0.000002146802
 61      -0.000062395418
 62      -0.000008174244
 63       0.000010659643
 64      -0.000003553798
 65       0.000002419391
 66       0.000002517342
 67       0.000004418413
 68      -0.000001600381
 69      -0.000003003307
 70      -0.000023400718
 71       0.000047211342
 72      -0.000012905268
 73      -0.000001430032
 74      -0.000002560252
 75      -0.000061775312
 76      -0.000007278601
 77      -0.000013250034
 78      -0.000004396093
 79      -0.000002460268
 80      -0.000002223021
 81       0.000003974599
 82      -0.000001126245
 Sym=     1a
 Ene= -4.94156580406861E+00
 Spin= Alpha
 Occup= 2.000000
  1      -0.000123045741
  2       0.000255356287
  3       0.000203658316
  4      -0.000323412443
  5       0.000000202591
  6      -0.000000144692
  7       0.000203053945
  8       0.000006827222
  9       0.000000200489
 10      -0.000032335306
 11      -0.000000093256
 12       0.000000183053
 13       0.000055055181
 14       0.000000509950
 15      -0.003860438092
 16      -0.000697092162
 17       0.001177100720
 18      -0.000558386895
 19       0.566449578450
 20       0.000011959007
 21      -0.000060137706
 22       0.536781464362
 23       0.000011254615
 24      -0.000056934575
 25      -0.001591004589
 26      -0.000000381896
 27       0.000000820834
 28      -0.000292996741
 29      -0.000001174819
 30      -0.000000690374
 31      -0.001279132930
 32      -0.000000232434
 33      -0.000000018529
 34       0.002215729217
 35       0.000000132322
 36       0.000037842676
 37       0.000000091572
 38      -0.000000012330
 39      -0.000066175425
 40      -0.000001649896
 41      -0.000005354457
 42      -0.000027856082
 43      -0.000029604501
 44      -0.000048005755
 45      -0.000000640362
 46      -0.000000023683
 47      -0.000126754747
 48       0.000032088791
 49       0.000003285884
 50      -0.000003564835
 51       0.000000188136
 52       0.000000076422
 53       0.000005060996
 54       0.000004071789
 55      -0.000005611002
 56      -0.000030589238
 57      -0.000020605387
 58      -0.000048285859
 59       0.000000161962
 60      -0.000000764369
 61      -0.000128448971
 62      -0.000018892549
 63       0.000023516147
 64      -0.000002711644
 65       0.000003665851
 66      -0.000000630082
 67       0.000005349535
 68      -0.000002223803
 69      -0.000005604162
 70      -0.000030108795
 71      -0.000022079040
 72      -0.000048499653
 73       0.000000001194
 74       0.000000634141
 75      -0.000128703563
 76      -0.000014237174
 77      -0.000027504224
 78      -0.000002469421
 79      -0.000003852838
 80       0.000000475082
 81       0.000005501552
 82      -0.000001920064
 Sym=     1a
 Ene= -4.92315367002025E+00
 Spin= Alpha
 Occup= 2.000000
  1       0.000000044800
  2      -0.000000266593
  3      -0.000000178480
  4       0.000000178449
  5      -0.000015389232
  6      -0.000011260303
  7      -0.000001897080
  8      -0.000162407110
  9      -0.000114858892
 10       0.000005058420
 11       0.000025134899
 12       0.000002006436
 13       0.000003029978
 14       0.000034291081
 15      -0.000000470185
 16      -0.000000120779
 17       0.000000465455
 18      -0.000000962254
 19      -0.000025718732
 20      -0.458691776644
 21      -0.332359612728
 22      -0.000024366131
 23      -0.435273535308
 24      -0.315391184109
 25       0.000000276276
 26       0.002521838028
 27       0.001827226013
 28      -0.000000809214
 29      -0.000232675028
 30      -0.000168821603
 31       0.000003083124
 32      -0.001322241472
 33       0.000001417752
 34       0.000001599368
 35      -0.001824878611
 36       0.000003718649
 37       0.000013961044
 38       0.000001932009
 39       0.000001390865
 40       0.000019566638
 41      -0.000000752320
 42      -0.000020134208
 43       0.000114518670
 44       0.000010362568
 45       0.000002635639
 46       0.000005072284
 47      -0.000011054777
 48      -0.000007982942
 49       0.000027779749
 50       0.000000939993
 51      -0.000001885241
 52      -0.000002597216
 53       0.000005196196
 54       0.000001513324
 55       0.000000014788
 56      -0.000000014284
 57       0.000000487364
 58       0.000000241189
 59       0.000007918032
 60       0.000005604667
 61       0.000000461232
 62       0.000046630676
 63       0.000032932035
 64      -0.000003232052
 65      -0.000002303510
 66      -0.000001229704
 67      -0.000001759064
 68      -0.000003173905
 69       0.000000685573
 70       0.000019550411
 71      -0.000112839078
 72      -0.000010411984
 73       0.000005769926
 74       0.000000886139
 75       0.000011564237
 76       0.000024209390
 77      -0.000016039115
 78       0.000003073087
 79       0.000002045162
 80       0.000004317582
 81      -0.000003030145
 82      -0.000001295530
 Sym=     1a
 Ene= -4.92315266112295E+00
 Spin= Alpha
 Occup= 2.000000
  1      -0.000000007927
  2      -0.000000436855
  3       0.000002639960
  4       0.000000039258
  5      -0.000011232661
  6       0.000015444621
  7      -0.000002213972
  8      -0.000120710119
  9       0.000162452771
 10       0.000002076746
 11      -0.000034223567
 12      -0.000006081715
 13       0.000001361737
 14       0.000024510831
 15      -0.000000969852
 16      -0.000000447398
 17       0.000002622571
 18      -0.000003745721
 19       0.000055269227
 20      -0.332359966487
 21       0.458692267368
 22       0.000052542049
 23      -0.315391380529
 24       0.435273802088
 25       0.000000736252
 26       0.001828972072
 27      -0.002524108651
 28      -0.000002838826
 29      -0.000170188693
 30       0.000235228661
 31       0.000000654404
 32       0.001824956523
 33      -0.000003427235
 34       0.000001019629
 35      -0.001322362395
 36       0.000001849432
 37      -0.000019745257
 38      -0.000005245469
 39      -0.000000342018
 40       0.000014534783
 41      -0.000000533919
 42      -0.000012825581
 43       0.000070387298
 44       0.000006005520
 45       0.000002612742
 46      -0.000008220330
 47      -0.000007276323
 48       0.000000942766
 49      -0.000049806973
 50       0.000001274664
 51       0.000003473870
 52       0.000002921203
 53       0.000003424360
 54       0.000000553739
 55       0.000000931229
 56       0.000023896956
 57      -0.000134401379
 58      -0.000011848150
 59       0.000002270482
 60      -0.000002869925
 61       0.000014089557
 62      -0.000002647064
 63       0.000005715170
 64       0.000003541521
 65      -0.000001349543
 66      -0.000004224301
 67      -0.000003363315
 68       0.000000996637
 69      -0.000000402080
 70      -0.000011196475
 71       0.000064178577
 72       0.000005887589
 73       0.000007102064
 74      -0.000005226908
 75      -0.000006186830
 76       0.000047449860
 77      -0.000018769202
 78      -0.000004672631
 79       0.000000789400
 80       0.000000625990
 81      -0.000000025639
 82      -0.000003452225
 Sym=     1a
 Ene= -1.96775480738154E+00
 Spin= Alpha
 Occup= 2.000000
  1       0.003261282046
  2      -0.007879000787
  3       0.014115147645
  4       0.005432676801
  5      -0.000001081168
  6       0.000000001449
  7      -0.006755651228
  8      -0.000011300297
  9      -0.000016577270
 10       0.000760827252
 11      -0.000001258685
 12       0.000000995720
 13      -0.001315479561
 14      -0.000000774703
 15       0.005772235941
 16       0.003369241248
 17      -0.006289408672
 18      -0.009239024140
 19       0.002142543510
 20       0.000001292355
 21      -0.000000552106
 22       0.002134907733
 23       0.000001013640
 24      -0.000000416448
 25      -0.001564936258
 26      -0.000006201965
 27       0.000002159260
 28      -0.008919056633
 29       0.000009056739
 30       0.000000011635
 31       0.489627446397
 32       0.000125466231
 33       0.000016817874
 34      -0.848061214680
 35      -0.000046187116
 36       0.027634414023
 37       0.000009145280
 38       0.000000306163
 39      -0.047862542222
 40      -0.000002352733
 41      -0.000326515668
 42      -0.000249681600
 43      -0.002347220469
 44      -0.000241125832
 45      -0.000321499348
 46      -0.000029210811
 47       0.000797427674
 48       0.000386863011
 49       0.000040237912
 50       0.000031565195
 51      -0.000014589671
 52      -0.000007233124
 53       0.000020313829
 54      -0.000158075881
 55      -0.000326939046
 56      -0.000248914660
 57      -0.002353992218
 58      -0.000241406583
 59       0.000187134843
 60      -0.000263326365
 61       0.000797068149
 62      -0.000221936945
 63       0.000322758254
 64      -0.000012372132
 65      -0.000129945728
 66       0.000036047817
 67      -0.000004539160
 68       0.000091393820
 69      -0.000325691596
 70      -0.000241270562
 71      -0.002374210823
 72      -0.000239957377
 73       0.000134789121
 74       0.000292855616
 75       0.000804131426
 76      -0.000164725589
 77      -0.000359102974
 78      -0.000022944786
 79       0.000144730400
 80      -0.000029353497
 81      -0.000010818430
 82       0.000066799503
 Sym=     1a
 Ene= -1.96236970864223E+00
 Spin= Alpha
 Occup= 2.000000
  1       0.000000009759
  2       0.000002294813
  3      -0.000010308245
  4      -0.000002596520
  5      -0.001175154399
  6      -0.000613653628
  7       0.000010078680
  8       0.004110708695
  9       0.002127295670
 10      -0.000119950865
 11       0.000277555698
 12      -0.000027451901
 13      -0.000068872198
 14       0.000533837772
 15      -0.000001639722
 16      -0.000001713745
 17       0.000007447504
 18       0.000000331775
 19      -0.000001414486
 20       0.001360907680
 21       0.000710660668
 22      -0.000001089079
 23       0.001625922171
 24       0.000848973807
 25       0.000006868847
 26      -0.001218772409
 27      -0.000637785565
 28      -0.000001094796
 29      -0.001113696967
 30      -0.000575823422
 31       0.001029421728
 32      -0.453799610483
 33       0.000313988141
 34       0.000574407105
 35      -0.869157209717
 36       0.000033164016
 37      -0.023971931620
 38       0.000012153802
 39       0.000020285892
 40      -0.045919842393
 41      -0.000168644538
 42       0.000145675757
 43      -0.002821379772
 44      -0.000226101759
 45      -0.000124303240
 46      -0.000048594864
 47       0.000133804328
 48       0.000513757837
 49      -0.000376154197
 50       0.000024971620
 51       0.000011929498
 52       0.000024336554
 53       0.000015505861
 54      -0.000030074810
 55       0.000024330810
 56      -0.000025588074
 57       0.000426215933
 58       0.000032311810
 59      -0.000090830569
 60      -0.000041625619
 61      -0.000025671189
 62      -0.000870006698
 63      -0.000704754183
 64       0.000064302246
 65       0.000025712147
 66       0.000022217054
 67       0.000037293870
 68       0.000028406303
 69       0.000143801139
 70      -0.000124928953
 71       0.002404934677
 72       0.000192152951
 73      -0.000101754083
 74      -0.000073789618
 75      -0.000118089116
 76      -0.000461338775
 77       0.000657748814
 78       0.000043739872
 79      -0.000032411471
 80      -0.000015412031
 81       0.000024334085
 82       0.000010737450
 Sym=     1a
 Ene= -1.96236887879726E+00
 Spin= Alpha
 Occup= 2.000000
  1      -0.000000950774
  2       0.000000119580
  3       0.000037325072
  4      -0.000000082467
  5      -0.000614655479
  6       0.001174851656
  7       0.000013397726
  8       0.002154915932
  9      -0.004092712910
 10      -0.000024521989
 11      -0.000532498250
 12       0.000138040109
 13      -0.000014830834
 14       0.000279017029
 15      -0.000001617116
 16      -0.000001969919
 17       0.000012586964
 18      -0.000013173652
 19      -0.000001406120
 20       0.000710327447
 21      -0.001360702510
 22      -0.000001270652
 23       0.000848784454
 24      -0.001625783535
 25       0.000006204723
 26      -0.000634342435
 27       0.001217738911
 28      -0.000009260966
 29      -0.000586365766
 30       0.001112441145
 31       0.000062180605
 32       0.869157528159
 33      -0.001072193094
 34       0.000189994911
 35      -0.453798383781
 36       0.000000004536
 37       0.045917776815
 38      -0.000035353669
 39       0.000006125753
 40      -0.023977698956
 41      -0.000068467427
 42       0.000066190334
 43      -0.001179447152
 44      -0.000092461898
 45      -0.000060153674
 46       0.000086193556
 47       0.000054524546
 48       0.000105540314
 49       0.001054830163
 50      -0.000003017410
 51      -0.000036297576
 52      -0.000072830417
 53      -0.000001133085
 54      -0.000008438949
 55       0.000181435010
 56      -0.000149094492
 57       0.002998845483
 58       0.000241303656
 59      -0.000069697861
 60       0.000120141574
 61      -0.000146560361
 62       0.000409863949
 63      -0.000325555763
 64      -0.000000599691
 65       0.000022425421
 66      -0.000027659905
 67      -0.000001337389
 68      -0.000021614986
 69      -0.000111024631
 70       0.000101074575
 71      -0.001875484808
 72      -0.000149988661
 73      -0.000037188764
 74       0.000109321400
 75       0.000085717687
 76      -0.000947875362
 77       0.000082434407
 78       0.000030895376
 79       0.000004683056
 80      -0.000052703901
 81       0.000018849062
 82       0.000035839477
 Sym=     1a
 Ene= -1.94681592862966E+00
 Spin= Alpha
 Occup= 2.000000
  1      -0.000000078927
  2       0.000000973219
  3       0.000000248072
  4      -0.000000665288
  5       0.000087036728
  6       0.000024505667
  7       0.000002021516
  8       0.000340668127
  9       0.000094939259
 10      -0.000077880256
 11       0.000006926545
 12       0.000000308782
 13      -0.000044857343
 14       0.000024549611
 15      -0.000000542912
 16      -0.000000726556
 17       0.000005374233
 18      -0.000005477677
 19      -0.000000429289
 20      -0.000002359775
 21      -0.000000597101
 22      -0.000000325211
 23      -0.000012930576
 24      -0.000003580798
 25       0.000002840450
 26       0.000026846378
 27       0.000007421475
 28      -0.000003507188
 29      -0.000057961927
 30      -0.000016249231
 31      -0.849708151367
 32      -0.000406364920
 33       0.001859690766
 34      -0.490579101313
 35      -0.001095762867
 36      -0.043129380319
 37      -0.000035932137
 38       0.000094386787
 39      -0.024899485459
 40      -0.000110067462
 41       0.000047866614
 42       0.000216439735
 43      -0.000379193842
 44       0.000077002967
 45       0.000012193090
 46       0.000004207495
 47       0.000184703458
 48       0.000120093802
 49       0.000003592478
 50       0.000006364870
 51       0.000000271884
 52      -0.000001624377
 53       0.000015465726
 54      -0.000013431341
 55      -0.000016355457
 56      -0.000074037548
 57       0.000129755732
 58      -0.000026459809
 59       0.000014871268
 60       0.000005342296
 61      -0.000064055258
 62      -0.000010713935
 63      -0.000057227061
 64       0.000006568087
 65       0.000008414717
 66      -0.000002831291
 67      -0.000000192352
 68       0.000003895932
 69      -0.000031690521
 70      -0.000143121538
 71       0.000249592544
 72      -0.000051017100
 73       0.000014488429
 74       0.000002428334
 75      -0.000123077035
 76       0.000001753302
 77       0.000085442890
 78       0.000010643086
 79      -0.000010765641
 80       0.000004363345
 81      -0.000001567837
 82       0.000002018930
 Sym=     1a
 Ene= -1.94680717098181E+00
 Spin= Alpha
 Occup= 2.000000
  1      -0.000000116211
  2       0.000000293517
  3       0.000003086561
  4      -0.000000200626
  5       0.000024780032
  6      -0.000087023453
  7       0.000003079003
  8       0.000097021247
  9      -0.000335583939
 10       0.000000055470
 11      -0.000023887157
 12       0.000089515491
 13      -0.000000002123
 14       0.000006895450
 15      -0.000000263981
 16      -0.000000209150
 17       0.000001467500
 18      -0.000001155580
 19      -0.000000007040
 20      -0.000001335874
 21       0.000004563799
 22       0.000000014228